<?xml version="1.0" encoding="UTF-8"?>

<!-- generated on 2021-09-17 04:44:40 by Eclipse SUMO GUI Version 1.9.2
<configuration xmlns:xsi="http://www.w3.org/2001/XMLSchema-instance" xsi:noNamespaceSchemaLocation="http://sumo.dlr.de/xsd/sumoConfiguration.xsd">

    <input>
        <net-file value="data/tl.net.xml"/>
        <route-files value="data/tl.rou.xml"/>
        <additional-files value="data/tl.add.xml"/>
    </input>

    <output>
        <tripinfo-output value="tripinfo.xml"/>
    </output>

    <time>
        <begin value="0"/>
    </time>

    <report>
        <verbose value="true"/>
        <no-step-log value="true"/>
    </report>

    <traci_server>
        <remote-port value="49926"/>
    </traci_server>

    <gui_only>
        <gui-settings-file value="data/tl.view.xml"/>
    </gui_only>

</configuration>
-->

<tripinfos xmlns:xsi="http://www.w3.org/2001/XMLSchema-instance" xsi:noNamespaceSchemaLocation="http://sumo.dlr.de/xsd/tripinfo_file.xsd">
    <tripinfo id="one_2" depart="3.00" departLane="-4588222#1_0" departPos="5.10" departSpeed="0.00" departDelay="0.00" arrival="80.00" arrivalLane="4588219#0_0" arrivalPos="164.85" arrivalSpeed="8.16" duration="77.00" routeLength="445.89" waitingTime="9.00" waitingCount="1" stopTime="0.00" timeLoss="27.89" rerouteNo="0" devices="tripinfo_one_2" vType="carA" speedFactor="1.01" vaporized=""/>
    <tripinfo id="two_0" depart="0.00" departLane="-109902441#1_0" departPos="5.10" departSpeed="0.00" departDelay="0.00" arrival="87.00" arrivalLane="292429056#0_0" arrivalPos="197.19" arrivalSpeed="14.55" duration="87.00" routeLength="530.20" waitingTime="14.00" waitingCount="1" stopTime="0.00" timeLoss="38.98" rerouteNo="0" devices="tripinfo_two_0" vType="carA" speedFactor="1.06" vaporized=""/>
    <tripinfo id="three_7" depart="23.00" departLane="-168935757#2_0" departPos="5.10" departSpeed="0.00" departDelay="0.00" arrival="92.00" arrivalLane="4588219#0_0" arrivalPos="164.85" arrivalSpeed="7.34" duration="69.00" routeLength="457.23" waitingTime="0.00" waitingCount="0" stopTime="0.00" timeLoss="21.31" rerouteNo="0" devices="tripinfo_three_7" vType="carA" speedFactor="0.89" vaporized=""/>
    <tripinfo id="two_1" depart="5.00" departLane="-109902441#1_0" departPos="5.10" departSpeed="0.00" departDelay="3.00" arrival="94.00" arrivalLane="292429056#0_0" arrivalPos="197.19" arrivalSpeed="12.86" duration="89.00" routeLength="530.20" waitingTime="4.00" waitingCount="2" stopTime="0.00" timeLoss="34.61" rerouteNo="0" devices="tripinfo_two_1" vType="carA" speedFactor="0.94" vaporized=""/>
    <tripinfo id="three_10" depart="31.00" departLane="-168935757#2_0" departPos="5.10" departSpeed="0.00" departDelay="0.00" arrival="94.00" arrivalLane="4588219#0_0" arrivalPos="164.85" arrivalSpeed="8.49" duration="63.00" routeLength="457.23" waitingTime="0.00" waitingCount="0" stopTime="0.00" timeLoss="24.42" rerouteNo="0" devices="tripinfo_three_10" vType="carA" speedFactor="1.09" vaporized=""/>
    <tripinfo id="two_4" depart="10.00" departLane="-109902441#1_0" departPos="5.10" departSpeed="0.00" departDelay="0.00" arrival="96.00" arrivalLane="292429056#0_0" arrivalPos="197.19" arrivalSpeed="14.13" duration="86.00" routeLength="530.20" waitingTime="2.00" waitingCount="1" stopTime="0.00" timeLoss="36.43" rerouteNo="0" devices="tripinfo_two_4" vType="carA" speedFactor="1.03" vaporized=""/>
    <tripinfo id="one_8" depart="25.00" departLane="-4588222#1_0" departPos="5.10" departSpeed="0.00" departDelay="0.00" arrival="96.00" arrivalLane="4588219#0_0" arrivalPos="164.85" arrivalSpeed="7.63" duration="71.00" routeLength="445.89" waitingTime="0.00" waitingCount="0" stopTime="0.00" timeLoss="17.45" rerouteNo="0" devices="tripinfo_one_8" vType="carA" speedFactor="0.94" vaporized=""/>
    <tripinfo id="two_6" depart="22.00" departLane="-109902441#1_0" departPos="5.10" departSpeed="0.00" departDelay="0.00" arrival="97.00" arrivalLane="292429056#0_0" arrivalPos="197.19" arrivalSpeed="14.43" duration="75.00" routeLength="530.20" waitingTime="0.00" waitingCount="0" stopTime="0.00" timeLoss="26.18" rerouteNo="0" devices="tripinfo_two_6" vType="carA" speedFactor="1.05" vaporized=""/>
    <tripinfo id="one_9" depart="31.00" departLane="-4588222#1_0" departPos="5.10" departSpeed="0.00" departDelay="0.00" arrival="100.00" arrivalLane="4588219#0_0" arrivalPos="164.85" arrivalSpeed="7.02" duration="69.00" routeLength="445.89" waitingTime="0.00" waitingCount="0" stopTime="0.00" timeLoss="10.44" rerouteNo="0" devices="tripinfo_one_9" vType="carA" speedFactor="0.86" vaporized=""/>
    <tripinfo id="four_3" depart="4.00" departLane="23755739#0_0" departPos="5.10" departSpeed="0.00" departDelay="0.00" arrival="105.00" arrivalLane="4588220#0_0" arrivalPos="88.17" arrivalSpeed="13.67" duration="101.00" routeLength="565.57" waitingTime="21.00" waitingCount="1" stopTime="0.00" timeLoss="41.33" rerouteNo="0" devices="tripinfo_four_3" vType="carA" speedFactor="1.08" vaporized=""/>
    <tripinfo id="four_5" depart="16.00" departLane="23755739#0_0" departPos="5.10" departSpeed="0.00" departDelay="0.00" arrival="109.00" arrivalLane="4588220#0_0" arrivalPos="88.17" arrivalSpeed="11.15" duration="93.00" routeLength="565.57" waitingTime="0.00" waitingCount="0" stopTime="0.00" timeLoss="16.17" rerouteNo="0" devices="tripinfo_four_5" vType="carA" speedFactor="0.83" vaporized=""/>
    <tripinfo id="one_12" depart="56.00" departLane="-4588222#1_0" departPos="5.10" departSpeed="0.00" departDelay="0.00" arrival="132.00" arrivalLane="4588219#0_0" arrivalPos="164.85" arrivalSpeed="8.50" duration="76.00" routeLength="445.89" waitingTime="7.00" waitingCount="1" stopTime="0.00" timeLoss="28.11" rerouteNo="0" devices="tripinfo_one_12" vType="carA" speedFactor="1.05" vaporized=""/>
    <tripinfo id="three_14" depart="72.00" departLane="-168935757#2_0" departPos="5.10" departSpeed="0.00" departDelay="0.00" arrival="138.00" arrivalLane="4588219#0_0" arrivalPos="164.85" arrivalSpeed="8.00" duration="66.00" routeLength="457.23" waitingTime="0.00" waitingCount="0" stopTime="0.00" timeLoss="23.41" rerouteNo="0" devices="tripinfo_three_14" vType="carA" speedFactor="0.99" vaporized=""/>
    <tripinfo id="two_11" depart="49.00" departLane="-109902441#1_0" departPos="5.10" departSpeed="0.00" departDelay="0.00" arrival="140.00" arrivalLane="292429056#0_0" arrivalPos="197.19" arrivalSpeed="14.21" duration="91.00" routeLength="530.20" waitingTime="17.00" waitingCount="1" stopTime="0.00" timeLoss="41.63" rerouteNo="0" devices="tripinfo_two_11" vType="carA" speedFactor="1.03" vaporized=""/>
    <tripinfo id="two_13" depart="67.00" departLane="-109902441#1_0" departPos="5.10" departSpeed="0.00" departDelay="0.00" arrival="143.00" arrivalLane="292429056#0_0" arrivalPos="197.19" arrivalSpeed="15.49" duration="76.00" routeLength="530.20" waitingTime="2.00" waitingCount="1" stopTime="0.00" timeLoss="30.74" rerouteNo="0" devices="tripinfo_two_13" vType="carA" speedFactor="1.12" vaporized=""/>
    <tripinfo id="three_17" depart="85.00" departLane="-168935757#2_0" departPos="5.10" departSpeed="0.00" departDelay="0.00" arrival="143.00" arrivalLane="4588219#0_0" arrivalPos="164.85" arrivalSpeed="7.79" duration="58.00" routeLength="457.23" waitingTime="0.00" waitingCount="0" stopTime="0.00" timeLoss="13.11" rerouteNo="0" devices="tripinfo_three_17" vType="carA" speedFactor="0.94" vaporized=""/>
    <tripinfo id="one_16" depart="81.00" departLane="-4588222#1_0" departPos="5.10" departSpeed="0.00" departDelay="0.00" arrival="148.00" arrivalLane="4588219#0_0" arrivalPos="164.85" arrivalSpeed="7.28" duration="67.00" routeLength="445.89" waitingTime="0.00" waitingCount="0" stopTime="0.00" timeLoss="10.31" rerouteNo="0" devices="tripinfo_one_16" vType="carA" speedFactor="0.88" vaporized=""/>
    <tripinfo id="two_15" depart="74.00" departLane="-109902441#1_0" departPos="5.10" departSpeed="0.00" departDelay="0.00" arrival="150.00" arrivalLane="292429056#0_0" arrivalPos="197.19" arrivalSpeed="12.79" duration="76.00" routeLength="530.20" waitingTime="0.00" waitingCount="0" stopTime="0.00" timeLoss="21.50" rerouteNo="0" devices="tripinfo_two_15" vType="carA" speedFactor="0.93" vaporized=""/>
    <tripinfo id="three_19" depart="98.00" departLane="-168935757#2_0" departPos="5.10" departSpeed="0.00" departDelay="0.00" arrival="180.00" arrivalLane="4588219#0_0" arrivalPos="164.85" arrivalSpeed="9.46" duration="82.00" routeLength="457.23" waitingTime="23.00" waitingCount="1" stopTime="0.00" timeLoss="45.70" rerouteNo="0" devices="tripinfo_three_19" vType="carA" speedFactor="1.16" vaporized=""/>
    <tripinfo id="one_18" depart="92.00" departLane="-4588222#1_0" departPos="5.10" departSpeed="0.00" departDelay="0.00" arrival="185.00" arrivalLane="4588219#0_0" arrivalPos="164.85" arrivalSpeed="7.50" duration="93.00" routeLength="445.89" waitingTime="15.00" waitingCount="2" stopTime="0.00" timeLoss="39.39" rerouteNo="0" devices="tripinfo_one_18" vType="carA" speedFactor="0.94" vaporized=""/>
    <tripinfo id="three_28" depart="129.00" departLane="-168935757#2_0" departPos="5.10" departSpeed="0.00" departDelay="0.00" arrival="189.00" arrivalLane="4588219#0_0" arrivalPos="164.85" arrivalSpeed="9.36" duration="60.00" routeLength="457.23" waitingTime="0.00" waitingCount="0" stopTime="0.00" timeLoss="22.63" rerouteNo="0" devices="tripinfo_three_28" vType="carA" speedFactor="1.13" vaporized=""/>
    <tripinfo id="one_26" depart="126.00" departLane="-4588222#1_0" departPos="5.10" departSpeed="0.00" departDelay="0.00" arrival="195.00" arrivalLane="4588219#0_0" arrivalPos="164.85" arrivalSpeed="7.32" duration="69.00" routeLength="445.89" waitingTime="0.00" waitingCount="0" stopTime="0.00" timeLoss="14.24" rerouteNo="0" devices="tripinfo_one_26" vType="carA" speedFactor="0.92" vaporized=""/>
    <tripinfo id="two_22" depart="117.00" departLane="-109902441#1_0" departPos="5.10" departSpeed="0.00" departDelay="0.00" arrival="197.00" arrivalLane="292429056#0_0" arrivalPos="197.19" arrivalSpeed="13.28" duration="80.00" routeLength="530.20" waitingTime="2.00" waitingCount="1" stopTime="0.00" timeLoss="27.99" rerouteNo="0" devices="tripinfo_two_22" vType="carA" speedFactor="0.98" vaporized=""/>
    <tripinfo id="one_27" depart="131.00" departLane="-4588222#1_0" departPos="5.10" departSpeed="0.00" departDelay="4.00" arrival="197.00" arrivalLane="4588219#0_0" arrivalPos="164.85" arrivalSpeed="7.72" duration="66.00" routeLength="445.89" waitingTime="0.00" waitingCount="0" stopTime="0.00" timeLoss="13.33" rerouteNo="0" devices="tripinfo_one_27" vType="carA" speedFactor="0.95" vaporized=""/>
    <tripinfo id="two_23" depart="122.00" departLane="-109902441#1_0" departPos="5.10" departSpeed="0.00" departDelay="2.00" arrival="201.00" arrivalLane="292429056#0_0" arrivalPos="197.19" arrivalSpeed="12.02" duration="79.00" routeLength="530.20" waitingTime="1.00" waitingCount="1" stopTime="0.00" timeLoss="22.48" rerouteNo="0" devices="tripinfo_two_23" vType="carA" speedFactor="0.89" vaporized=""/>
    <tripinfo id="one_29" depart="136.00" departLane="-4588222#1_0" departPos="5.10" departSpeed="0.00" departDelay="4.00" arrival="201.00" arrivalLane="4588219#0_0" arrivalPos="164.85" arrivalSpeed="7.72" duration="65.00" routeLength="445.89" waitingTime="0.00" waitingCount="0" stopTime="0.00" timeLoss="10.76" rerouteNo="0" devices="tripinfo_one_29" vType="carA" speedFactor="0.93" vaporized=""/>
    <tripinfo id="three_32" depart="149.00" departLane="-168935757#2_0" departPos="5.10" departSpeed="0.00" departDelay="0.00" arrival="204.00" arrivalLane="4588219#0_0" arrivalPos="164.85" arrivalSpeed="8.21" duration="55.00" routeLength="457.23" waitingTime="0.00" waitingCount="0" stopTime="0.00" timeLoss="12.87" rerouteNo="0" devices="tripinfo_three_32" vType="carA" speedFactor="1.01" vaporized=""/>
    <tripinfo id="four_20" depart="103.00" departLane="23755739#0_0" departPos="5.10" departSpeed="0.00" departDelay="0.00" arrival="212.00" arrivalLane="4588220#0_0" arrivalPos="88.17" arrivalSpeed="13.56" duration="109.00" routeLength="565.57" waitingTime="27.00" waitingCount="1" stopTime="0.00" timeLoss="45.77" rerouteNo="0" devices="tripinfo_four_20" vType="carA" speedFactor="1.02" vaporized=""/>
    <tripinfo id="four_21" depart="108.00" departLane="23755739#0_0" departPos="5.10" departSpeed="0.00" departDelay="2.00" arrival="213.00" arrivalLane="4588220#0_0" arrivalPos="88.17" arrivalSpeed="13.25" duration="105.00" routeLength="565.57" waitingTime="22.00" waitingCount="1" stopTime="0.00" timeLoss="42.04" rerouteNo="0" devices="tripinfo_four_21" vType="carA" speedFactor="1.01" vaporized=""/>
    <tripinfo id="four_30" depart="135.00" departLane="23755739#0_0" departPos="5.10" departSpeed="0.00" departDelay="0.00" arrival="215.00" arrivalLane="4588220#0_0" arrivalPos="88.17" arrivalSpeed="13.42" duration="80.00" routeLength="565.57" waitingTime="1.00" waitingCount="1" stopTime="0.00" timeLoss="25.99" rerouteNo="0" devices="tripinfo_four_30" vType="carA" speedFactor="1.18" vaporized=""/>
    <tripinfo id="three_34" depart="164.00" departLane="-168935757#2_0" departPos="5.10" departSpeed="0.00" departDelay="0.00" arrival="240.00" arrivalLane="4588219#0_0" arrivalPos="164.85" arrivalSpeed="7.92" duration="76.00" routeLength="457.23" waitingTime="11.00" waitingCount="1" stopTime="0.00" timeLoss="33.91" rerouteNo="0" devices="tripinfo_three_34" vType="carA" speedFactor="0.99" vaporized=""/>
    <tripinfo id="one_35" depart="171.00" departLane="-4588222#1_0" departPos="5.10" departSpeed="0.00" departDelay="0.00" arrival="244.00" arrivalLane="4588219#0_0" arrivalPos="164.85" arrivalSpeed="8.11" duration="73.00" routeLength="445.89" waitingTime="1.00" waitingCount="1" stopTime="0.00" timeLoss="23.66" rerouteNo="0" devices="tripinfo_one_35" vType="carA" speedFactor="1.02" vaporized=""/>
    <tripinfo id="one_36" depart="179.00" departLane="-4588222#1_0" departPos="5.10" departSpeed="0.00" departDelay="0.00" arrival="247.00" arrivalLane="4588219#0_0" arrivalPos="164.85" arrivalSpeed="7.96" duration="68.00" routeLength="445.89" waitingTime="0.00" waitingCount="0" stopTime="0.00" timeLoss="16.71" rerouteNo="0" devices="tripinfo_one_36" vType="carA" speedFactor="0.97" vaporized=""/>
    <tripinfo id="two_24" depart="128.00" departLane="-109902441#1_0" departPos="5.10" departSpeed="0.00" departDelay="5.00" arrival="248.00" arrivalLane="292429056#0_0" arrivalPos="197.19" arrivalSpeed="11.12" duration="120.00" routeLength="530.20" waitingTime="31.00" waitingCount="2" stopTime="0.00" timeLoss="59.10" rerouteNo="0" devices="tripinfo_two_24" vType="carA" speedFactor="0.83" vaporized=""/>
    <tripinfo id="one_37" depart="184.00" departLane="-4588222#1_0" departPos="5.10" departSpeed="0.00" departDelay="2.00" arrival="249.00" arrivalLane="4588219#0_0" arrivalPos="164.85" arrivalSpeed="9.44" duration="65.00" routeLength="445.89" waitingTime="0.00" waitingCount="0" stopTime="0.00" timeLoss="22.06" rerouteNo="0" devices="tripinfo_one_37" vType="carA" speedFactor="1.18" vaporized=""/>
    <tripinfo id="two_25" depart="134.00" departLane="-109902441#1_0" departPos="5.10" departSpeed="0.00" departDelay="9.00" arrival="251.00" arrivalLane="292429056#0_0" arrivalPos="197.19" arrivalSpeed="11.77" duration="117.00" routeLength="530.20" waitingTime="28.00" waitingCount="2" stopTime="0.00" timeLoss="58.58" rerouteNo="0" devices="tripinfo_two_25" vType="carA" speedFactor="0.87" vaporized=""/>
    <tripinfo id="two_31" depart="147.00" departLane="-109902441#1_0" departPos="5.10" departSpeed="0.00" departDelay="0.00" arrival="253.00" arrivalLane="292429056#0_0" arrivalPos="197.19" arrivalSpeed="12.73" duration="106.00" routeLength="530.20" waitingTime="14.00" waitingCount="3" stopTime="0.00" timeLoss="61.79" rerouteNo="0" devices="tripinfo_two_31" vType="carA" speedFactor="1.15" vaporized=""/>
    <tripinfo id="two_33" depart="159.00" departLane="-109902441#1_0" departPos="5.10" departSpeed="0.00" departDelay="0.00" arrival="258.00" arrivalLane="292429056#0_0" arrivalPos="197.19" arrivalSpeed="16.27" duration="99.00" routeLength="530.20" waitingTime="19.00" waitingCount="2" stopTime="0.00" timeLoss="55.58" rerouteNo="0" devices="tripinfo_two_33" vType="carA" speedFactor="1.17" vaporized=""/>
    <tripinfo id="three_39" depart="206.00" departLane="-168935757#2_0" departPos="5.10" departSpeed="0.00" departDelay="0.00" arrival="291.00" arrivalLane="4588219#0_0" arrivalPos="164.85" arrivalSpeed="7.24" duration="85.00" routeLength="457.23" waitingTime="19.00" waitingCount="1" stopTime="0.00" timeLoss="38.80" rerouteNo="0" devices="tripinfo_three_39" vType="carA" speedFactor="0.90" vaporized=""/>
    <tripinfo id="three_41" depart="220.00" departLane="-168935757#2_0" departPos="5.10" departSpeed="0.00" departDelay="0.00" arrival="293.00" arrivalLane="4588219#0_0" arrivalPos="164.85" arrivalSpeed="7.80" duration="73.00" routeLength="457.23" waitingTime="8.00" waitingCount="1" stopTime="0.00" timeLoss="29.36" rerouteNo="0" devices="tripinfo_three_41" vType="carA" speedFactor="0.96" vaporized=""/>
    <tripinfo id="two_38" depart="204.00" departLane="-109902441#1_0" departPos="5.10" departSpeed="0.00" departDelay="0.00" arrival="295.00" arrivalLane="292429056#0_0" arrivalPos="197.19" arrivalSpeed="15.11" duration="91.00" routeLength="530.20" waitingTime="20.00" waitingCount="1" stopTime="0.00" timeLoss="45.22" rerouteNo="0" devices="tripinfo_two_38" vType="carA" speedFactor="1.10" vaporized=""/>
    <tripinfo id="one_40" depart="216.00" departLane="-4588222#1_0" departPos="5.10" departSpeed="0.00" departDelay="0.00" arrival="295.00" arrivalLane="4588219#0_0" arrivalPos="164.85" arrivalSpeed="8.29" duration="79.00" routeLength="445.89" waitingTime="1.00" waitingCount="1" stopTime="0.00" timeLoss="30.26" rerouteNo="0" devices="tripinfo_one_40" vType="carA" speedFactor="1.03" vaporized=""/>
    <tripinfo id="one_42" depart="227.00" departLane="-4588222#1_0" departPos="5.10" departSpeed="0.00" departDelay="0.00" arrival="297.00" arrivalLane="4588219#0_0" arrivalPos="164.85" arrivalSpeed="9.02" duration="70.00" routeLength="445.89" waitingTime="0.00" waitingCount="0" stopTime="0.00" timeLoss="24.09" rerouteNo="0" devices="tripinfo_one_42" vType="carA" speedFactor="1.09" vaporized=""/>
    <tripinfo id="three_44" depart="241.00" departLane="-168935757#2_0" departPos="5.10" departSpeed="0.00" departDelay="0.00" arrival="299.00" arrivalLane="4588219#0_0" arrivalPos="164.85" arrivalSpeed="8.43" duration="58.00" routeLength="457.23" waitingTime="0.00" waitingCount="0" stopTime="0.00" timeLoss="17.68" rerouteNo="0" devices="tripinfo_three_44" vType="carA" speedFactor="1.04" vaporized=""/>
    <tripinfo id="one_43" depart="239.00" departLane="-4588222#1_0" departPos="5.10" departSpeed="0.00" departDelay="0.00" arrival="301.00" arrivalLane="4588219#0_0" arrivalPos="164.85" arrivalSpeed="8.63" duration="62.00" routeLength="445.89" waitingTime="0.00" waitingCount="0" stopTime="0.00" timeLoss="13.40" rerouteNo="0" devices="tripinfo_one_43" vType="carA" speedFactor="1.04" vaporized=""/>
    <tripinfo id="four_45" depart="248.00" departLane="23755739#0_0" departPos="5.10" departSpeed="0.00" departDelay="0.00" arrival="321.00" arrivalLane="4588220#0_0" arrivalPos="88.17" arrivalSpeed="13.86" duration="73.00" routeLength="565.57" waitingTime="0.00" waitingCount="0" stopTime="0.00" timeLoss="14.40" rerouteNo="0" devices="tripinfo_four_45" vType="carA" speedFactor="1.09" vaporized=""/>
